53
Fe2_17H2O_Cl.log	Energy: -1896150.8785930
Fe         0.20487       -0.21847        0.20365
O         -1.11468       -1.40150        1.30637
O         -1.65018       -0.26928       -1.64362
O          1.00441        0.57376       -1.56315
O          1.01856       -2.12446       -0.40433
O         -0.91061        1.57183        0.76422
H          2.00959       -2.21584       -0.41187
H          0.67350       -2.44505       -1.26627
H         -1.03415        1.68603        1.75232
H         -1.81067        1.73850        0.36617
H         -2.56744       -0.27463       -1.27977
H         -1.51705        0.58708       -2.11372
H         -1.44441       -2.21391        0.85355
H         -1.90150       -0.99574        1.75364
H          1.98678        0.41443       -1.67916
H          0.91034        1.56720       -1.48232
O          4.25624       -1.42540        2.04405
O         -3.24659        2.16357       -0.54077
O          3.68402        0.28430       -1.71602
O          0.59234        3.18575       -0.97537
O          3.76720       -2.10524       -0.40221
O          3.10567        2.80022       -0.14354
O         -1.70572        1.59329        3.30968
O         -3.50222       -0.32811        2.24119
O         -2.45185       -3.31410       -0.30227
O         -0.87995       -2.67084       -2.38323
O         -4.03622       -1.08903       -0.35806
O         -1.46323        2.46734       -2.57844
H          3.57675        2.17256       -0.72884
H          2.85542        2.22720        0.61904
H          4.14292       -2.05061        2.77929
H          3.50270       -0.77790        2.12024
H          4.31532       -2.84469       -0.71259
H          4.02171       -1.93717        0.57663
H         -0.94217       -2.94605       -3.31212
H         -1.17160       -1.70881       -2.32547
H          4.14083        0.23572       -2.57183
H          3.86900       -0.57878       -1.24841
H          1.57063        3.24480       -0.73273
H          0.14855        2.88244       -0.14737
H         -1.54987        2.82326       -3.47767
H         -0.65808        2.89345       -2.17288
H         -4.88849       -1.07952       -0.82459
H         -3.69484       -2.02267       -0.38084
H         -2.59201       -4.24837       -0.07650
H         -1.90039       -3.28836       -1.13775
H         -4.00563       -0.90075        2.84424
H         -3.89965       -0.46084        1.34094
H         -1.88542        2.36253        3.87374
H         -2.55866        1.13482        3.15560
H         -3.75515        2.91070       -0.18452
H         -2.79247        2.50161       -1.35450
Cl         1.86949        0.47006        1.70915
